Title: 
Date: Wed May  8 05:05:46  2019
Plotname: Operating Point
Flags: real
No. Variables: 14
No. Points: 1       
Variables:
	0	v(vout)	voltage
	1	v(net-_c1-pad2_)	voltage
	2	v(vdd)	voltage
	3	v(net-_ibias1-pad2_)	voltage
	4	v(net-_m1-pad1_)	voltage
	5	v(vinn)	voltage
	6	v(net-_m1-pad3_)	voltage
	7	v(net-_m2-pad1_)	voltage
	8	v(vinp)	voltage
	9	v(vgate)	voltage
	10	i(v2)	current
	11	i(v1)	current
	12	v(@m1[vds])	voltage
	13	@i1[current]	capacitance
Values:
0		1.500321850570524e+00
	0.000000000000000e+00
	1.800000000000000e+00
	6.394154877726610e-01
	9.263467341907902e-01
	1.200000000000000e+00
	5.647053088811425e-01
	9.121203619747718e-01
	1.200257480452430e+00
	1.377548600545591e+00
	0.000000000000000e+00
	-1.431810728036176e-03
	3.616311154949157e-01
	1.000000000000000e-03
Title: 
Date: Wed May  8 05:05:46  2019
Plotname: Transient Analysis
Flags: real
No. Variables: 15
No. Points: 6108    
Variables:
	0	time	time
	1	v(vout)	voltage
	2	v(net-_c1-pad2_)	voltage
	3	v(vdd)	voltage
	4	v(net-_ibias1-pad2_)	voltage
	5	v(net-_m1-pad1_)	voltage
	6	v(vinn)	voltage
	7	v(net-_m1-pad3_)	voltage
	8	v(net-_m2-pad1_)	voltage
	9	v(vinp)	voltage
	10	v(vgate)	voltage
	11	i(v2)	current
	12	i(v1)	current
	13	v(@m1[vds])	voltage
	14	@i1[current]	capacitance
Values:
0		0.000000000000000e+00
	1.500321850570524e+00
	0.000000000000000e+00
	1.800000000000000e+00
	6.394154877726610e-01
	9.263467341907902e-01
	1.200000000000000e+00
	5.647053088811425e-01
	9.121203619747718e-01
	1.200257480452430e+00
	1.377548600545591e+00
	0.000000000000000e+00
	-1.431810728036176e-03
	3.616311154949157e-01
	1.000000000000000e-03
1		1.000000000000000e-08
	1.500321850571036e+00
	5.111466805374221e-13
	1.800000000000000e+00
	6.394154877737241e-01
	9.263467342141865e-01
	1.200000000000000e+00
	5.647053088848659e-01
	9.121203618441189e-01
	1.200257480455435e+00
	1.377548600546564e+00
	2.125356013009177e-16
	-1.431810698239460e-03
	3.616311155145889e-01
	1.000000000000000e-03
2		2.000000000000000e-08
	1.500321850571033e+00
	5.069278330438465e-13
	1.800000000000000e+00
	6.394154877745667e-01
	9.263467342163901e-01
	1.200000000000000e+00
	5.647053088842652e-01
	9.121203617463873e-01
	1.200257480455439e+00
	1.377548600548173e+00
	-2.558971236949967e-17
	-1.431810698039147e-03
	3.616311155173931e-01
	1.000000000000000e-03
3		4.000000000000000e-08
	1.500321850570931e+00
	4.021227795192317e-13
	1.800000000000000e+00
	6.394154877758610e-01
	9.263467342068460e-01
	1.200000000000000e+00
	5.647053088818362e-01
	9.121203615932778e-01
	1.200257480455404e+00
	1.377548600552662e+00
	-1.047595526087542e-16
	-1.431810712109702e-03
	3.616311155102776e-01
	1.000000000000000e-03
4		8.000000000000000e-08
	1.500321850569775e+00
	-7.516209876712310e-13
	1.800000000000000e+00
	6.394154877741344e-01
	9.263467341993650e-01
	1.200000000000000e+00
	5.647053088810411e-01
	9.121203614395377e-01
	1.200257480455977e+00
	1.377548600566422e+00
	8.027034779597465e-17
	-1.431810719457483e-03
	3.616311155035918e-01
	1.000000000000000e-03
5		1.600000000000000e-07
	1.500321850571182e+00
	6.572520305780927e-13
	1.800000000000000e+00
	6.394154877748934e-01
	9.263467342252211e-01
	1.200000000000000e+00
	5.647053088804662e-01
	9.121203611340896e-01
	1.200257480455845e+00
	1.377548600608754e+00
	-7.778769422757230e-17
	-1.431810737285967e-03
	3.616311155300224e-01
	1.000000000000000e-03
6		3.200000000000000e-07
	1.500321850570258e+00
	-2.731148640577885e-13
	1.800000000000000e+00
	6.394154877774507e-01
	9.263467341823762e-01
	1.200000000000000e+00
	5.647053088756327e-01
	9.121203611830353e-01
	1.200257480457082e+00
	1.377548600710376e+00
	4.104356379435836e-17
	-1.431810738357806e-03
	3.616311154920107e-01
	1.000000000000000e-03
7		6.400000000000000e-07
	1.500321850571430e+00
	8.784084570834239e-13
	1.800000000000000e+00
	6.394154877732837e-01
	9.263467342124354e-01
	1.200000000000000e+00
	5.647053088799142e-01
	9.121203613545106e-01
	1.200257480456513e+00
	1.377548600886087e+00
	-2.548460087470133e-17
	-1.431810738705644e-03
	3.616311155177890e-01
	1.000000000000000e-03
8		1.280000000000000e-06
	1.500321850569548e+00
	-9.956480084838404e-13
	1.800000000000000e+00
	6.394154877750297e-01
	9.263467342065993e-01
	1.200000000000000e+00
	5.647053088759865e-01
	9.121203609875010e-01
	1.200257480456092e+00
	1.377548601278199e+00
	1.933179986796039e-17
	-1.431810710343295e-03
	3.616311155158800e-01
	1.000000000000000e-03
9		2.280000000000000e-06
	1.500321850567650e+00
	-2.519984221294180e-12
	1.800000000000000e+00
	6.394154877761195e-01
	9.263467341902010e-01
	1.200000000000000e+00
	5.647053088819064e-01
	9.121203619929830e-01
	1.200257480453968e+00
	1.377548601625930e+00
	-1.412683203791947e-17
	-1.431810704882728e-03
	3.616311154935626e-01
	1.000000000000000e-03
10		3.280000000000000e-06
	1.500321850566845e+00
	-2.762901019082165e-12
	1.800000000000000e+00
	6.394154877752684e-01
	9.263467341901204e-01
	1.200000000000000e+00
	5.647053088802855e-01
	9.121203616131623e-01
	1.200257480453530e+00
	1.377548601723493e+00
	1.256959505161694e-17
	-1.431810704803055e-03
	3.616311154951027e-01
	1.000000000000000e-03
11		4.280000000000000e-06
	1.500321850565921e+00
	-3.066880083224532e-12
	1.800000000000000e+00
	6.394154877763590e-01
	9.263467341915956e-01
	1.200000000000000e+00
	5.647053088830450e-01
	9.121203618765392e-01
	1.200257480452773e+00
	1.377548601860889e+00
	-9.879719504880254e-18
	-1.431810704909475e-03
	3.616311154938187e-01
	1.000000000000000e-03
12		5.279999999999999e-06
	1.500321850564759e+00
	-3.527400593839047e-12
	1.800000000000000e+00
	6.394154877757718e-01
	9.263467341878163e-01
	1.200000000000000e+00
	5.647053088772502e-01
	9.121203614715441e-01
	1.200257480451640e+00
	1.377548602042631e+00
	4.210395640009214e-18
	-1.431810675481844e-03
	3.616311154958336e-01
	1.000000000000000e-03
13		6.279999999999999e-06
	1.500321850562960e+00
	-4.475086967659081e-12
	1.800000000000000e+00
	6.394154877761622e-01
	9.263467341806350e-01
	1.200000000000000e+00
	5.647053088756445e-01
	9.121203613406053e-01
	1.200257480450501e+00
	1.377548602423066e+00
	-5.960289608420243e-18
	-1.431810689375835e-03
	3.616311154902577e-01
	1.000000000000000e-03
14		7.279999999999999e-06
	1.500321850561151e+00
	-5.248912415822815e-12
	1.800000000000000e+00
	6.394154877757086e-01
	9.263467341927097e-01
	1.200000000000000e+00
	5.647053088798868e-01
	9.121203617064424e-01
	1.200257480448920e+00
	1.377548602705253e+00
	1.037979981600531e-17
	-1.431810687769434e-03
	3.616311154980908e-01
	1.000000000000000e-03
15		8.279999999999999e-06
	1.500321850560232e+00
	-5.069722419648315e-12
	1.800000000000000e+00
	6.394154877762936e-01
	9.263467341875542e-01
	1.200000000000000e+00
	5.647053088820747e-01
	9.121203622927894e-01
	1.200257480448346e+00
	1.377548602614402e+00
	-8.430611568250657e-18
	-1.431810672614778e-03
	3.616311154907474e-01
	1.000000000000000e-03
16		9.279999999999999e-06
	1.500321850559964e+00
	-4.336309089580936e-12
	1.800000000000000e+00
	6.394154877763770e-01
	9.263467341851317e-01
	1.200000000000000e+00
	5.647053088790551e-01
	9.121203621789391e-01
	1.200257480447765e+00
	1.377548602342288e+00
	5.463633825031155e-18
	-1.431810702946716e-03
	3.616311154913443e-01
	1.000000000000000e-03
17		1.028000000000000e-05
	1.500321850559462e+00
	-3.956834859764058e-12
	1.800000000000000e+00
	6.394154877752148e-01
	9.263467341819583e-01
	1.200000000000000e+00
	5.647053088784749e-01
	9.121203619433942e-01
	1.200257480447716e+00
	1.377548602215973e+00
	-6.112196364831932e-18
	-1.431810704114945e-03
	3.616311154887510e-01
	1.000000000000000e-03
18		1.128000000000000e-05
	1.500321850558690e+00
	-3.892886013545649e-12
	1.800000000000000e+00
	6.394154877758849e-01
	9.263467341931485e-01
	1.200000000000000e+00
	5.647053088819410e-01
	9.121203619299862e-01
	1.200257480446837e+00
	1.377548602189012e+00
	9.761333415611665e-18
	-1.431810674996020e-03
	3.616311154964754e-01
	1.000000000000000e-03
19		1.228000000000000e-05
	1.500321850558145e+00
	-3.637534717881863e-12
	1.800000000000000e+00
	6.394154877754070e-01
	9.263467341868438e-01
	1.200000000000000e+00
	5.647053088814865e-01
	9.121203621701923e-01
	1.200257480446686e+00
	1.377548602074256e+00
	-1.038043509071575e-17
	-1.431810689361263e-03
	3.616311154906252e-01
	1.000000000000000e-03
20		1.328000000000000e-05
	1.500321850557878e+00
	-3.178790564106748e-12
	1.800000000000000e+00
	6.394154877759033e-01
	9.263467341924864e-01
	1.200000000000000e+00
	5.647053088804718e-01
	9.121203621011631e-01
	1.200257480446113e+00
	1.377548601898727e+00
	9.569940365479146e-18
	-1.431810675402993e-03
	3.616311154972826e-01
	1.000000000000000e-03
21		1.428000000000000e-05
	1.500321850557639e+00
	-2.783551167340192e-12
	1.800000000000000e+00
	6.394154877750985e-01
	9.263467341826566e-01
	1.200000000000000e+00
	5.647053088799029e-01
	9.121203621066627e-01
	1.200257480446296e+00
	1.377548601748847e+00
	-1.040165392778896e-17
	-1.431810690566564e-03
	3.616311154880215e-01
	1.000000000000000e-03
22		1.528000000000000e-05
	1.500321850557144e+00
	-2.695399459184955e-12
	1.800000000000000e+00
	6.394154877763754e-01
	9.263467341857853e-01
	1.200000000000000e+00
	5.647053088770002e-01
	9.121203617922617e-01
	1.200257480445442e+00
	1.377548601723103e+00
	7.706934411385165e-18
	-1.431810705527312e-03
	3.616311154940527e-01
	1.000000000000000e-03
23		1.628000000000000e-05
	1.500321850556630e+00
	-2.641442620188172e-12
	1.800000000000000e+00
	6.394154877759103e-01
	9.263467341856497e-01
	1.200000000000000e+00
	5.647053088789451e-01
	9.121203621264442e-01
	1.200257480445671e+00
	1.377548601691443e+00
	-5.844543879666923e-18
	-1.431810705170832e-03
	3.616311154919725e-01
	1.000000000000000e-03
24		1.728000000000000e-05
	1.500321850556525e+00
	-2.228439655027614e-12
	1.800000000000000e+00
	6.394154877751931e-01
	9.263467341908170e-01
	1.200000000000000e+00
	5.647053088809445e-01
	9.121203621496008e-01
	1.200257480444882e+00
	1.377548601521423e+00
	7.912617833780150e-18
	-1.431810705383133e-03
	3.616311154951404e-01
	1.000000000000000e-03
25		1.828000000000000e-05
	1.500321850556574e+00
	-1.755706691142223e-12
	1.800000000000000e+00
	6.394154877764794e-01
	9.263467341883154e-01
	1.200000000000000e+00
	5.647053088808228e-01
	9.121203621598326e-01
	1.200257480445594e+00
	1.377548601345114e+00
	-8.102075281279296e-18
	-1.431810691606611e-03
	3.616311154927604e-01
	1.000000000000000e-03
26		1.928000000000001e-05
	1.500321850556868e+00
	-1.151967410351062e-12
	1.800000000000000e+00
	6.394154877764100e-01
	9.263467341879500e-01
	1.200000000000000e+00
	5.647053088799526e-01
	9.121203623316205e-01
	1.200257480445198e+00
	1.377548601106080e+00
	7.256723165029703e-18
	-1.431810692074303e-03
	3.616311154932653e-01
	1.000000000000000e-03
27		2.028000000000001e-05
	1.500321850556965e+00
	-8.431033649003439e-13
	1.800000000000000e+00
	6.394154877749851e-01
	9.263467341837982e-01
	1.200000000000000e+00
	5.647053088774682e-01
	9.121203618286344e-01
	1.200257480445726e+00
	1.377548600998368e+00
	-9.761608039575033e-18
	-1.431810707560048e-03
	3.616311154915977e-01
	1.000000000000000e-03
28		2.128000000000001e-05
	1.500321850556497e+00
	-1.104449864897106e-12
	1.800000000000000e+00
	6.394154877766380e-01
	9.263467341870292e-01
	1.200000000000000e+00
	5.647053088768762e-01
	9.121203617684657e-01
	1.200257480445031e+00
	1.377548601107955e+00
	9.286885777308400e-18
	-1.431810692924541e-03
	3.616311154954204e-01
	1.000000000000000e-03
29		2.228000000000001e-05
	1.500321850556065e+00
	-1.282529638046981e-12
	1.800000000000000e+00
	6.394154877754482e-01
	9.263467341792126e-01
	1.200000000000000e+00
	5.647053088774792e-01
	9.121203620118621e-01
	1.200257480445081e+00
	1.377548601156075e+00
	-8.935327399528463e-18
	-1.431810692078700e-03
	3.616311154870011e-01
	1.000000000000000e-03
30		2.328000000000001e-05
	1.500321850556006e+00
	-1.089350831762204e-12
	1.800000000000000e+00
	6.394154877762913e-01
	9.263467341922198e-01
	1.200000000000000e+00
	5.647053088815245e-01
	9.121203621149476e-01
	1.200257480444635e+00
	1.377548601077223e+00
	1.319359694466980e-17
	-1.431810706685419e-03
	3.616311154959634e-01
	1.000000000000000e-03
31		2.428000000000001e-05
	1.500321850556198e+00
	-7.058797990566745e-13
	1.800000000000000e+00
	6.394154877766323e-01
	9.263467341830531e-01
	1.200000000000000e+00
	5.647053088804392e-01
	9.121203621859735e-01
	1.200257480445132e+00
	1.377548600930066e+00
	-1.449992027268294e-17
	-1.431810707195034e-03
	3.616311154878818e-01
	1.000000000000000e-03
32		2.528000000000001e-05
	1.500321850555234e+00
	-1.441069485963453e-12
	1.800000000000000e+00
	6.394154877765451e-01
	9.263467341829549e-01
	1.200000000000000e+00
	5.647053088767808e-01
	9.121203620920966e-01
	1.200257480443974e+00
	1.377548600798705e+00
	1.098688751989268e-17
	-1.431810722322986e-03
	3.616311154914416e-01
	1.000000000000000e-03
33		2.628000000000001e-05
	1.500321850555116e+00
	-1.270983318590879e-12
	1.800000000000000e+00
	6.394154877752354e-01
	9.263467341835210e-01
	1.200000000000000e+00
	5.647053088787677e-01
	9.121203620131269e-01
	1.200257480444301e+00
	1.377548600734943e+00
	-9.063838179494701e-18
	-1.431810708081574e-03
	3.616311154900209e-01
	1.000000000000000e-03
34		2.728000000000001e-05
	1.500321850555077e+00
	-1.061595256146575e-12
	1.800000000000000e+00
	6.394154877756045e-01
	9.263467341935482e-01
	1.200000000000000e+00
	5.647053088810289e-01
	9.121203621474478e-01
	1.200257480443907e+00
	1.377548600646945e+00
	1.152428360281123e-17
	-1.431810708106349e-03
	3.616311154977873e-01
	1.000000000000000e-03
35		2.828000000000001e-05
	1.500321850555421e+00
	-5.466738173254271e-13
	1.800000000000000e+00
	6.394154877760269e-01
	9.263467341891232e-01
	1.200000000000000e+00
	5.647053088814270e-01
	9.121203623250125e-01
	1.200257480444532e+00
	1.377548600437596e+00
	-1.127019687969209e-17
	-1.431810722956368e-03
	3.616311154929641e-01
	1.000000000000000e-03
36		2.928000000000001e-05
	1.500321850555762e+00
	-1.327826737451687e-13
	1.800000000000000e+00
	6.394154877754606e-01
	9.263467341861849e-01
	1.200000000000000e+00
	5.647053088784757e-01
	9.121203620017440e-01
	1.200257480444318e+00
	1.377548600290698e+00
	8.353114671021789e-18
	-1.431810738473749e-03
	3.616311154929769e-01
	1.000000000000000e-03
37		3.028000000000001e-05
	1.500321850555663e+00
	-1.973976537783528e-13
	1.800000000000000e+00
	6.394154877755717e-01
	9.263467341882353e-01
	1.200000000000000e+00
	5.647053088783260e-01
	9.121203618924127e-01
	1.200257480444792e+00
	1.377548600322642e+00
	-8.437066885751021e-18
	-1.431810738665712e-03
	3.616311154951769e-01
	1.000000000000000e-03
38		3.128000000000001e-05
	1.500321850555777e+00
	-5.551115123125783e-14
	1.800000000000000e+00
	6.394154877756715e-01
	9.263467341926990e-01
	1.200000000000000e+00
	5.647053088826227e-01
	9.121203622707128e-01
	1.200257480444486e+00
	1.377548600248396e+00
	1.268979101206580e-17
	-1.431810738093868e-03
	3.616311154953443e-01
	1.000000000000000e-03
39		3.228000000000001e-05
	1.500321850556238e+00
	3.714806240395774e-13
	1.800000000000000e+00
	6.394154877756059e-01
	9.263467341797926e-01
	1.200000000000000e+00
	5.647053088783459e-01
	9.121203621335709e-01
	1.200257480445057e+00
	1.377548600081606e+00
	-1.716690607750906e-17
	-1.431810738662883e-03
	3.616311154867143e-01
	1.000000000000000e-03
40		3.328000000000001e-05
	1.500321850556482e+00
	5.204725539442734e-13
	1.800000000000000e+00
	6.394154877753750e-01
	9.263467341908677e-01
	1.200000000000000e+00
	5.647053088799303e-01
	9.121203619663589e-01
	1.200257480445091e+00
	1.377548600039332e+00
	1.900786932263973e-17
	-1.431810739319148e-03
	3.616311154962052e-01
	1.000000000000000e-03
41		3.428000000000000e-05
	1.500321850556853e+00
	7.549516567451064e-13
	1.800000000000000e+00
	6.394154877760824e-01
	9.263467341875776e-01
	1.200000000000000e+00
	5.647053088821768e-01
	9.121203623042788e-01
	1.200257480445668e+00
	1.377548599932841e+00
	-1.694786865130502e-17
	-1.431810739048795e-03
	3.616311154906688e-01
	1.000000000000000e-03
42		3.528000000000000e-05
	1.500321850557790e+00
	1.456612608308205e-12
	1.800000000000000e+00
	6.394154877761726e-01
	9.263467341896461e-01
	1.200000000000000e+00
	5.647053088799379e-01
	9.121203624416907e-01
	1.200257480446058e+00
	1.377548599652858e+00
	1.485925414822088e-17
	-1.431810754121375e-03
	3.616311154949761e-01
	1.000000000000000e-03
43		3.628000000000000e-05
	1.500321850558876e+00
	2.158495604476229e-12
	1.800000000000000e+00
	6.394154877766050e-01
	9.263467341970600e-01
	1.200000000000000e+00
	5.647053088803712e-01
	9.121203622906151e-01
	1.200257480447233e+00
	1.377548599390620e+00
	-1.422965720550471e-17
	-1.431810769886384e-03
	3.616311155019568e-01
	1.000000000000000e-03
44		3.728000000000000e-05
	1.500321850559883e+00
	2.653877118063974e-12
	1.800000000000000e+00
	6.394154877766752e-01
	9.263467341863925e-01
	1.200000000000000e+00
	5.647053088800728e-01
	9.121203622660659e-01
	1.200257480447762e+00
	1.377548599202086e+00
	1.363438825820950e-17
	-1.431810755997227e-03
	3.616311154915877e-01
	1.000000000000000e-03
45		3.827999999999999e-05
	1.500321850560760e+00
	2.936539900133539e-12
	1.800000000000000e+00
	6.394154877758244e-01
	9.263467341950792e-01
	1.200000000000000e+00
	5.647053088813401e-01
	9.121203621029395e-01
	1.200257480448716e+00
	1.377548599090543e+00
	-1.216679448925057e-17
	-1.431810741829805e-03
	3.616311154990071e-01
	1.000000000000000e-03
46		3.927999999999999e-05
	1.500321850561701e+00
	3.222311306672054e-12
	1.800000000000000e+00
	6.394154877759882e-01
	9.263467341905574e-01
	1.200000000000000e+00
	5.647053088813888e-01
	9.121203622768022e-01
	1.200257480449290e+00
	1.377548598974114e+00
	1.208284558324379e-17
	-1.431810771009568e-03
	3.616311154944366e-01
	1.000000000000000e-03
47		4.027999999999999e-05
	1.500321850562806e+00
	3.601785536488933e-12
	1.800000000000000e+00
	6.394154877763846e-01
	9.263467341901322e-01
	1.200000000000000e+00
	5.647053088820250e-01
	9.121203622078937e-01
	1.200257480450296e+00
	1.377548598823660e+00
	-1.148368557834713e-17
	-1.431810771399312e-03
	3.616311154933753e-01
	1.000000000000000e-03
48		4.127999999999998e-05
	1.500321850563776e+00
	3.786304603181634e-12
	1.800000000000000e+00
	6.394154877761591e-01
	9.263467341927651e-01
	1.200000000000000e+00
	5.647053088825940e-01
	9.121203620702545e-01
	1.200257480450937e+00
	1.377548598761162e+00
	1.210616876779533e-17
	-1.431810771896928e-03
	3.616311154954392e-01
	1.000000000000000e-03
49		4.227999999999998e-05
	1.500321850564631e+00
	3.830935568771565e-12
	1.800000000000000e+00
	6.394154877759319e-01
	9.263467341940091e-01
	1.200000000000000e+00
	5.647053088826998e-01
	9.121203621007012e-01
	1.200257480451790e+00
	1.377548598738828e+00
	-1.196874759827067e-17
	-1.431810757292321e-03
	3.616311154965776e-01
	1.000000000000000e-03
50		4.327999999999998e-05
	1.500321850565234e+00
	3.639311074721263e-12
	1.800000000000000e+00
	6.394154877757103e-01
	9.263467341941422e-01
	1.200000000000000e+00
	5.647053088818340e-01
	9.121203617948836e-01
	1.200257480452021e+00
	1.377548598819815e+00
	1.114219895170564e-17
	-1.431810742781073e-03
	3.616311154975761e-01
	1.000000000000000e-03
51		4.427999999999998e-05
	1.500321850565669e+00
	3.332889519924720e-12
	1.800000000000000e+00
	6.394154877750247e-01
	9.263467341966310e-01
	1.200000000000000e+00
	5.647053088826545e-01
	9.121203620013674e-01
	1.200257480452751e+00
	1.377548598932967e+00
	-1.028302961050396e-17
	-1.431810785882598e-03
	3.616311154992448e-01
	1.000000000000000e-03
52		4.527999999999997e-05
	1.500321850566399e+00
	3.351985355948273e-12
	1.800000000000000e+00
	6.394154877764505e-01
	9.263467341955942e-01
	1.200000000000000e+00
	5.647053088827468e-01
	9.121203621356102e-01
	1.200257480452935e+00
	1.377548598915134e+00
	1.034253698377102e-17
	-1.431810741853476e-03
	3.616311154981154e-01
	1.000000000000000e-03
53		4.627999999999997e-05
	1.500321850566999e+00
	3.249844837682758e-12
	1.800000000000000e+00
	6.394154877763928e-01
	9.263467341928309e-01
	1.200000000000000e+00
	5.647053088814419e-01
	9.121203618195182e-01
	1.200257480453693e+00
	1.377548598968740e+00
	-1.167416211236094e-17
	-1.431810771383845e-03
	3.616311154966568e-01
	1.000000000000000e-03
54		4.727999999999997e-05
	1.500321850567496e+00
	3.074429599791983e-12
	1.800000000000000e+00
	6.394154877752304e-01
	9.263467341969399e-01
	1.200000000000000e+00
	5.647053088844626e-01
	9.121203621108975e-01
	1.200257480453994e+00
	1.377548599033334e+00
	1.469215042959536e-17
	-1.431810770924894e-03
	3.616311154977457e-01
	1.000000000000000e-03
55		4.827999999999996e-05
	1.500321850568130e+00
	3.056443986793056e-12
	1.800000000000000e+00
	6.394154877756494e-01
	9.263467341924959e-01
	1.200000000000000e+00
	5.647053088841614e-01
	9.121203619964291e-01
	1.200257480454474e+00
	1.377548599034549e+00
	-1.510943657884876e-17
	-1.431810770849235e-03
	3.616311154936027e-01
	1.000000000000000e-03
56		4.927999999999996e-05
	1.500321850568575e+00
	2.870592652470805e-12
	1.800000000000000e+00
	6.394154877764643e-01
	9.263467341925862e-01
	1.200000000000000e+00
	5.647053088812196e-01
	9.121203618975571e-01
	1.200257480454841e+00
	1.377548599118459e+00
	1.228974992422290e-17
	-1.431810741832512e-03
	3.616311154966345e-01
	1.000000000000000e-03
57		5.027999999999996e-05
	1.500321850568786e+00
	2.509326080257779e-12
	1.800000000000000e+00
	6.394154877751518e-01
	9.263467342012706e-01
	1.200000000000000e+00
	5.647053088830956e-01
	9.121203618260196e-01
	1.200257480455044e+00
	1.377548599256647e+00
	-1.023715417373177e-17
	-1.431810770522961e-03
	3.616311155034431e-01
	1.000000000000000e-03
58		5.127999999999996e-05
	1.500321850568896e+00
	2.126077092157175e-12
	1.800000000000000e+00
	6.394154877754287e-01
	9.263467341979740e-01
	1.200000000000000e+00
	5.647053088809715e-01
	9.121203618577098e-01
	1.200257480455093e+00
	1.377548599403846e+00
	8.103971179243267e-18
	-1.431810740923450e-03
	3.616311155022705e-01
	1.000000000000000e-03
59		5.227999999999995e-05
	1.500321850568983e+00
	1.796340853843503e-12
	1.800000000000000e+00
	6.394154877754696e-01
	9.263467341994356e-01
	1.200000000000000e+00
	5.647053088840308e-01
	9.121203618715157e-01
	1.200257480455236e+00
	1.377548599529795e+00
	-5.125508860399079e-18
	-1.431810755021472e-03
	3.616311155006730e-01
	1.000000000000000e-03
60		5.327999999999995e-05
	1.500321850568961e+00
	1.430855434136902e-12
	1.800000000000000e+00
	6.394154877753094e-01
	9.263467341877415e-01
	1.200000000000000e+00
	5.647053088811262e-01
	9.121203617953526e-01
	1.200257480455081e+00
	1.377548599676468e+00
	1.999097017193655e-18
	-1.431810754761616e-03
	3.616311154918832e-01
	1.000000000000000e-03
61		5.427999999999995e-05
	1.500321850568400e+00
	6.485922909860165e-13
	1.800000000000000e+00
	6.394154877761058e-01
	9.263467341938384e-01
	1.200000000000000e+00
	5.647053088810307e-01
	9.121203614137912e-01
	1.200257480454721e+00
	1.377548599992521e+00
	-1.913116555602443e-18
	-1.431810739798683e-03
	3.616311154980758e-01
	1.000000000000000e-03
62		5.527999999999995e-05
	1.500321850567103e+00
	-6.494804694057166e-13
	1.800000000000000e+00
	6.394154877764006e-01
	9.263467341796439e-01
	1.200000000000000e+00
	5.647053088762626e-01
	9.121203612425504e-01
	1.200257480453614e+00
	1.377548600501938e+00
	-3.073253908320316e-18
	-1.431810723935856e-03
	3.616311154886487e-01
	1.000000000000000e-03
63		5.627999999999994e-05
	1.500321850566940e+00
	-6.714628852932947e-13
	1.800000000000000e+00
	6.394154877757345e-01
	9.263467341759252e-01
	1.200000000000000e+00
	5.647053088788402e-01
	9.121203616316009e-01
	1.200257480453731e+00
	1.377548600916147e+00
	5.438027621988963e-18
	-1.431810736541590e-03
	3.616311154823525e-01
	1.000000000000000e-03
64		5.727999999999994e-05
	1.500321850566072e+00
	-1.326494469822137e-12
	1.800000000000000e+00
	6.394154877761745e-01
	9.263467341893414e-01
	1.200000000000000e+00
	5.647053088782829e-01
	9.121203616190670e-01
	1.200257480452681e+00
	1.377548601167792e+00
	-5.584805858602822e-18
	-1.431810692021208e-03
	3.616311154963263e-01
	1.000000000000000e-03
65		5.827999999999994e-05
	1.500321850565178e+00
	-1.879607580690390e-12
	1.800000000000000e+00
	6.394154877755746e-01
	9.263467341849109e-01
	1.200000000000000e+00
	5.647053088784966e-01
	9.121203616697642e-01
	1.200257480452337e+00
	1.377548601392424e+00
	5.660208334520706e-18
	-1.431810691662133e-03
	3.616311154916819e-01
	1.000000000000000e-03
66		5.927999999999993e-05
	1.500321850564163e+00
	-2.436051360632518e-12
	1.800000000000000e+00
	6.394154877759686e-01
	9.263467341917472e-01
	1.200000000000000e+00
	5.647053088800372e-01
	9.121203616203246e-01
	1.200257480451147e+00
	1.377548601611929e+00
	-3.984006232520801e-18
	-1.431810705643078e-03
	3.616311154969778e-01
	1.000000000000000e-03
67		6.027999999999993e-05
	1.500321850563002e+00
	-3.017586180931175e-12
	1.800000000000000e+00
	6.394154877750576e-01
	9.263467341870283e-01
	1.200000000000000e+00
	5.647053088792281e-01
	9.121203616341589e-01
	1.200257480450587e+00
	1.377548601839270e+00
	3.070524212298891e-18
	-1.431810705017030e-03
	3.616311154930679e-01
	1.000000000000000e-03
68		6.127999999999993e-05
	1.500321850562090e+00
	-3.261835246348710e-12
	1.800000000000000e+00
	6.394154877760357e-01
	9.263467341936922e-01
	1.200000000000000e+00
	5.647053088823893e-01
	9.121203619624225e-01
	1.200257480449597e+00
	1.377548601924984e+00
	1.546463786004638e-19
	-1.431810704303562e-03
	3.616311154965709e-01
	1.000000000000000e-03
69		6.227999999999993e-05
	1.500321850561709e+00
	-2.978506330464370e-12
	1.800000000000000e+00
	6.394154877763936e-01
	9.263467341896517e-01
	1.200000000000000e+00
	5.647053088821586e-01
	9.121203621423888e-01
	1.200257480449484e+00
	1.377548601809154e+00
	-4.938235169717073e-19
	-1.431810689872621e-03
	3.616311154927612e-01
	1.000000000000000e-03
70		6.327999999999992e-05
	1.500321850561528e+00
	-2.569500168192462e-12
	1.800000000000000e+00
	6.394154877760672e-01
	9.263467341884762e-01
	1.200000000000000e+00
	5.647053088802535e-01
	9.121203620768839e-01
	1.200257480449079e+00
	1.377548601662995e+00
	-1.367514841007367e-18
	-1.431810705240606e-03
	3.616311154934906e-01
	1.000000000000000e-03
71		6.427999999999992e-05
	1.500321850561090e+00
	-2.470468274395898e-12
	1.800000000000000e+00
	6.394154877755628e-01
	9.263467341942817e-01
	1.200000000000000e+00
	5.647053088816069e-01
	9.121203618688725e-01
	1.200257480448978e+00
	1.377548601633151e+00
	2.834565979484464e-18
	-1.431810691161178e-03
	3.616311154979429e-01
	1.000000000000000e-03
72		6.527999999999992e-05
	1.500321850560515e+00
	-2.515321284590755e-12
	1.800000000000000e+00
	6.394154877761414e-01
	9.263467341878143e-01
	1.200000000000000e+00
	5.647053088801230e-01
	9.121203619518781e-01
	1.200257480448320e+00
	1.377548601646045e+00
	-4.445348021198776e-18
	-1.431810705500000e-03
	3.616311154929590e-01
	1.000000000000000e-03
73		6.627999999999991e-05
	1.500321850560005e+00
	-2.492450690283476e-12
	1.800000000000000e+00
	6.394154877757938e-01
	9.263467341871151e-01
	1.200000000000000e+00
	5.647053088795561e-01
	9.121203619199179e-01
	1.200257480448086e+00
	1.377548601631455e+00
	3.879662361330912e-18
	-1.431810705399713e-03
	3.616311154928268e-01
	1.000000000000000e-03
74		6.727999999999991e-05
	1.500321850559733e+00
	-2.258859765902343e-12
	1.800000000000000e+00
	6.394154877751650e-01
	9.263467341937445e-01
	1.200000000000000e+00
	5.647053088829054e-01
	9.121203621553349e-01
	1.200257480447788e+00
	1.377548601537221e+00
	-4.739149339887810e-19
	-1.431810705455032e-03
	3.616311154961074e-01
	1.000000000000000e-03
75		6.827999999999991e-05
	1.500321850559619e+00
	-1.926681036934497e-12
	1.800000000000000e+00
	6.394154877766316e-01
	9.263467341806190e-01
	1.200000000000000e+00
	5.647053088783576e-01
	9.121203620108389e-01
	1.200257480447626e+00
	1.377548601409836e+00
	-4.269492731692452e-18
	-1.431810691423808e-03
	3.616311154875289e-01
	1.000000000000000e-03
76		6.927999999999991e-05
	1.500321850559212e+00
	-1.924238546280321e-12
	1.800000000000000e+00
	6.394154877752884e-01
	9.263467341913564e-01
	1.200000000000000e+00
	5.647053088805990e-01
	9.121203618122777e-01
	1.200257480447412e+00
	1.377548601422393e+00
	6.731109442756358e-18
	-1.431810706391997e-03
	3.616311154960253e-01
	1.000000000000000e-03
77		7.027999999999990e-05
	1.500321850558947e+00
	-1.794342452399178e-12
	1.800000000000000e+00
	6.394154877754088e-01
	9.263467341898436e-01
	1.200000000000000e+00
	5.647053088834162e-01
	9.121203622447567e-01
	1.200257480447241e+00
	1.377548601354359e+00
	-4.072815651806944e-18
	-1.431810705939223e-03
	3.616311154916955e-01
	1.000000000000000e-03
78		7.127999999999990e-05
	1.500321850559274e+00
	-1.153521722585538e-12
	1.800000000000000e+00
	6.394154877753403e-01
	9.263467341929360e-01
	1.200000000000000e+00
	5.647053088818819e-01
	9.121203622897909e-01
	1.200257480447334e+00
	1.377548601098446e+00
	2.690510821447129e-18
	-1.431810691844613e-03
	3.616311154963222e-01
	1.000000000000000e-03
79		7.227999999999990e-05
	1.500321850559590e+00
	-6.463718449367661e-13
	1.800000000000000e+00
	6.394154877763621e-01
	9.263467341889350e-01
	1.200000000000000e+00
	5.647053088807079e-01
	9.121203620799321e-01
	1.200257480447696e+00
	1.377548600917277e+00
	-3.932049363885120e-18
	-1.431810707561224e-03
	3.616311154934950e-01
	1.000000000000000e-03
80		7.327999999999989e-05
	1.500321850558428e+00
	-1.572519892079072e-12
	1.800000000000000e+00
	6.394154877756103e-01
	9.263467341853781e-01
	1.200000000000000e+00
	5.647053088781665e-01
	9.121203620052540e-01
	1.200257480446690e+00
	1.377548600857130e+00
	1.391387273485647e-18
	-1.431810736982117e-03
	3.616311154924793e-01
	1.000000000000000e-03
81		7.427999999999989e-05
	1.500321850558237e+00
	-1.442179708988078e-12
	1.800000000000000e+00
	6.394154877755009e-01
	9.263467341867834e-01
	1.200000000000000e+00
	5.647053088794818e-01
	9.121203620681939e-01
	1.200257480446667e+00
	1.377548600796205e+00
	-8.834619814311357e-20
	-1.431810707756699e-03
	3.616311154925693e-01
	1.000000000000000e-03
82		7.527999999999989e-05